TaPa-1.pdb
416
    1MOL      C    1  -0.314   0.713   0.081
    1MOL      C    2  -0.436   0.784   0.086
    1MOL      C    3  -0.412   0.922   0.091
    1MOL      C    4  -0.281   0.984   0.091
    1MOL      C    5  -0.157   0.917   0.086
    1MOL      C    6  -0.181   0.776   0.081
    1MOL      N    7   1.214   0.729   0.086
    1MOL      C    8   1.151   0.592   0.085
    1MOL      C    9   1.017   0.535   0.085
    1MOL      C   10   0.876   0.604   0.085
    1MOL      C   11   0.739   0.525   0.085
    1MOL      C   12   0.754   0.369   0.084
    1MOL      C   13   0.888   0.292   0.085
    1MOL      C   14   1.013   0.381   0.085
    1MOL      C   15   0.603   0.578   0.085
    1MOL      C   16   0.909   0.149   0.085
    1MOL      C   17   0.117   0.917   0.085
    1MOL      C   18   0.243   0.984   0.083
    1MOL      C   19   0.373   0.918   0.083
    1MOL      C   20   0.394   0.776   0.085
    1MOL      C   21   0.268   0.706   0.086
    1MOL      C   22   0.136   0.773   0.086
    1MOL      C   23  -0.025   1.146   0.084
    1MOL      C   24  -0.147   1.227   0.077
    1MOL      C   25  -0.153   1.371   0.077
    1MOL      C   26  -0.045   1.456   0.083
    1MOL      C   27   0.074   1.383   0.090
    1MOL      C   28   0.083   1.236   0.091
    1MOL      N   29   0.818   0.029   0.083
    1MOL      N   30   0.536   0.717   0.085
    1MOL      N   31  -0.020   0.991   0.085
    1MOL      O   32   0.652   0.302   0.084
    1MOL      O   33   0.872   0.726   0.086
    1MOL      O   34   1.121   0.323   0.085
    1MOL      H   35  -0.317   0.601   0.077
    1MOL      H   36  -0.499   0.992   0.096
    1MOL      H   37  -0.270   1.095   0.096
    1MOL      H   38  -0.093   0.707   0.076
    1MOL      H   39   1.127   0.799   0.087
    1MOL      H   40   1.217   0.499   0.084
    1MOL      H   41   0.514   0.507   0.085
    1MOL      H   42   1.015   0.107   0.086
    1MOL      H   43   0.247   1.098   0.082
    1MOL      H   44   0.468   0.980   0.082
    1MOL      H   45   0.267   0.593   0.087
    1MOL      H   46   0.041   0.711   0.087
    1MOL      H   47  -0.243   1.173   0.070
    1MOL      H   48  -0.250   1.423   0.071
    1MOL      H   49   0.169   1.439   0.096
    1MOL      H   50   0.181   1.186   0.097
    1MOL      H   51   0.708   0.043   0.082
    1MOL      H   52   0.625   0.784   0.085
    1MOL      C   53  -1.195   2.294   0.081
    1MOL      C   54  -1.317   2.365   0.086
    1MOL      C   55  -1.293   2.503   0.091
    1MOL      C   56  -1.162   2.565   0.091
    1MOL      C   57  -1.038   2.498   0.086
    1MOL      C   58  -1.061   2.358   0.081
    1MOL      N   59   0.333   2.310   0.086
    1MOL      C   60   0.270   2.173   0.085
    1MOL      C   61   0.136   2.116   0.085
    1MOL      C   62  -0.005   2.186   0.085
    1MOL      C   63  -0.141   2.106   0.085
    1MOL      C   64  -0.127   1.950   0.084
    1MOL      C   65   0.007   1.874   0.085
    1MOL      C   66   0.133   1.962   0.085
    1MOL      C   67  -0.277   2.159   0.085
    1MOL      C   68   0.028   1.731   0.085
    1MOL      C   69  -0.764   2.498   0.085
    1MOL      C   70  -0.637   2.565   0.083
    1MOL      C   71  -0.508   2.499   0.083
    1MOL      C   72  -0.487   2.358   0.085
    1MOL      C   73  -0.613   2.288   0.086
    1MOL      C   74  -0.744   2.355   0.086
    1MOL      C   75  -0.905   2.728   0.084
    1MOL      C   76  -1.028   2.808   0.077
    1MOL      C   77  -1.034   2.952   0.077
    1MOL      C   78  -0.925   3.038   0.083
    1MOL      C   79  -0.806   2.964   0.090
    1MOL      C   80  -0.797   2.817   0.091
    1MOL      N   81  -0.062   1.611   0.083
    1MOL      N   82  -0.344   2.298   0.085
    1MOL      N   83  -0.901   2.572   0.085
    1MOL      O   84  -0.229   1.884   0.084
    1MOL      O   85  -0.009   2.307   0.086
    1MOL      O   86   0.240   1.904   0.085
    1MOL      H   87  -1.197   2.182   0.077
    1MOL      H   88  -1.380   2.574   0.096
    1MOL      H   89  -1.151   2.676   0.096
    1MOL      H   90  -0.974   2.288   0.076
    1MOL      H   91   0.247   2.380   0.087
    1MOL      H   92   0.336   2.080   0.084
    1MOL      H   93  -0.366   2.088   0.085
    1MOL      H   94   0.134   1.689   0.086
    1MOL      H   95  -0.634   2.679   0.082
    1MOL      H   96  -0.412   2.561   0.082
    1MOL      H   97  -0.614   2.174   0.087
    1MOL      H   98  -0.840   2.293   0.087
    1MOL      H   99  -1.123   2.755   0.070
    1MOL      H  100  -1.131   3.005   0.071
    1MOL      H  101  -0.711   3.020   0.096
    1MOL      H  102  -0.699   2.767   0.097
    1MOL      H  103  -0.172   1.624   0.082
    1MOL      H  104  -0.256   2.365   0.085
    1MOL      C  105   1.480   0.713   0.081
    1MOL      C  106   1.357   0.784   0.086
    1MOL      C  107   1.381   0.922   0.091
    1MOL      C  108   1.512   0.984   0.091
    1MOL      C  109   1.636   0.917   0.086
    1MOL      C  110   1.613   0.776   0.081
    1MOL      N  111   3.007   0.729   0.086
    1MOL      C  112   2.944   0.592   0.085
    1MOL      C  113   2.810   0.535   0.085
    1MOL      C  114   2.669   0.604   0.085
    1MOL      C  115   2.533   0.525   0.085
    1MOL      C  116   2.548   0.369   0.084
    1MOL      C  117   2.681   0.292   0.085
    1MOL      C  118   2.807   0.381   0.085
    1MOL      C  119   2.397   0.578   0.085
    1MOL      C  120   2.702   0.149   0.085
    1MOL      C  121   1.910   0.917   0.085
    1MOL      C  122   2.037   0.984   0.083
    1MOL      C  123   2.167   0.918   0.083
    1MOL      C  124   2.187   0.776   0.085
    1MOL      C  125   2.062   0.706   0.086
    1MOL      C  126   1.930   0.773   0.086
    1MOL      C  127   1.769   1.146   0.084
    1MOL      C  128   1.647   1.227   0.077
    1MOL      C  129   1.640   1.371   0.077
    1MOL      C  130   1.749   1.456   0.083
    1MOL      C  131   1.868   1.383   0.090
    1MOL      C  132   1.877   1.236   0.091
    1MOL      N  133   2.612   0.029   0.083
    1MOL      N  134   2.330   0.717   0.085
    1MOL      N  135   1.773   0.991   0.085
    1MOL      O  136   2.446   0.302   0.084
    1MOL      O  137   2.665   0.726   0.086
    1MOL      O  138   2.914   0.323   0.085
    1MOL      H  139   1.477   0.601   0.077
    1MOL      H  140   1.294   0.992   0.096
    1MOL      H  141   1.523   1.095   0.096
    1MOL      H  142   1.700   0.707   0.076
    1MOL      H  143   2.921   0.799   0.087
    1MOL      H  144   3.010   0.499   0.084
    1MOL      H  145   2.308   0.507   0.085
    1MOL      H  146   2.808   0.107   0.086
    1MOL      H  147   2.040   1.098   0.082
    1MOL      H  148   2.262   0.980   0.082
    1MOL      H  149   2.060   0.593   0.087
    1MOL      H  150   1.834   0.711   0.087
    1MOL      H  151   1.551   1.173   0.070
    1MOL      H  152   1.543   1.423   0.071
    1MOL      H  153   1.963   1.439   0.096
    1MOL      H  154   1.975   1.186   0.097
    1MOL      H  155   2.502   0.043   0.082
    1MOL      H  156   2.418   0.784   0.085
    1MOL      C  157   0.599   2.294   0.081
    1MOL      C  158   0.476   2.365   0.086
    1MOL      C  159   0.501   2.503   0.091
    1MOL      C  160   0.632   2.565   0.091
    1MOL      C  161   0.756   2.498   0.086
    1MOL      C  162   0.732   2.358   0.081
    1MOL      N  163   2.126   2.310   0.086
    1MOL      C  164   2.064   2.173   0.085
    1MOL      C  165   1.930   2.116   0.085
    1MOL      C  166   1.789   2.186   0.085
    1MOL      C  167   1.652   2.106   0.085
    1MOL      C  168   1.667   1.950   0.084
    1MOL      C  169   1.801   1.874   0.085
    1MOL      C  170   1.926   1.962   0.085
    1MOL      C  171   1.516   2.159   0.085
    1MOL      C  172   1.822   1.731   0.085
    1MOL      C  173   1.029   2.498   0.085
    1MOL      C  174   1.156   2.565   0.083
    1MOL      C  175   1.286   2.499   0.083
    1MOL      C  176   1.307   2.358   0.085
    1MOL      C  177   1.181   2.288   0.086
    1MOL      C  178   1.049   2.355   0.086
    1MOL      C  179   0.888   2.728   0.084
    1MOL      C  180   0.766   2.808   0.077
    1MOL      C  181   0.760   2.952   0.077
    1MOL      C  182   0.868   3.038   0.083
    1MOL      C  183   0.987   2.964   0.090
    1MOL      C  184   0.996   2.817   0.091
    1MOL      N  185   1.731   1.611   0.083
    1MOL      N  186   1.449   2.298   0.085
    1MOL      N  187   0.892   2.572   0.085
    1MOL      O  188   1.565   1.884   0.084
    1MOL      O  189   1.785   2.307   0.086
    1MOL      O  190   2.034   1.904   0.085
    1MOL      H  191   0.596   2.182   0.077
    1MOL      H  192   0.414   2.574   0.096
    1MOL      H  193   0.642   2.676   0.096
    1MOL      H  194   0.820   2.288   0.076
    1MOL      H  195   2.040   2.380   0.087
    1MOL      H  196   2.130   2.080   0.084
    1MOL      H  197   1.427   2.088   0.085
    1MOL      H  198   1.928   1.689   0.086
    1MOL      H  199   1.160   2.679   0.082
    1MOL      H  200   1.381   2.561   0.082
    1MOL      H  201   1.179   2.174   0.087
    1MOL      H  202   0.954   2.293   0.087
    1MOL      H  203   0.670   2.755   0.070
    1MOL      H  204   0.663   3.005   0.071
    1MOL      H  205   1.082   3.020   0.096
    1MOL      H  206   1.094   2.767   0.097
    1MOL      H  207   1.621   1.624   0.082
    1MOL      H  208   1.538   2.365   0.085
    1MOL      C  209  -0.314   0.713   0.411
    1MOL      C  210  -0.436   0.784   0.416
    1MOL      C  211  -0.412   0.922   0.421
    1MOL      C  212  -0.281   0.984   0.421
    1MOL      C  213  -0.157   0.917   0.416
    1MOL      C  214  -0.181   0.776   0.411
    1MOL      N  215   1.214   0.729   0.416
    1MOL      C  216   1.151   0.592   0.415
    1MOL      C  217   1.017   0.535   0.415
    1MOL      C  218   0.876   0.604   0.415
    1MOL      C  219   0.739   0.525   0.415
    1MOL      C  220   0.754   0.369   0.414
    1MOL      C  221   0.888   0.292   0.415
    1MOL      C  222   1.013   0.381   0.415
    1MOL      C  223   0.603   0.578   0.415
    1MOL      C  224   0.909   0.149   0.415
    1MOL      C  225   0.117   0.917   0.415
    1MOL      C  226   0.243   0.984   0.413
    1MOL      C  227   0.373   0.918   0.413
    1MOL      C  228   0.394   0.776   0.415
    1MOL      C  229   0.268   0.706   0.416
    1MOL      C  230   0.136   0.773   0.416
    1MOL      C  231  -0.025   1.146   0.414
    1MOL      C  232  -0.147   1.227   0.407
    1MOL      C  233  -0.153   1.371   0.407
    1MOL      C  234  -0.045   1.456   0.413
    1MOL      C  235   0.074   1.383   0.420
    1MOL      C  236   0.083   1.236   0.421
    1MOL      N  237   0.818   0.029   0.413
    1MOL      N  238   0.536   0.717   0.415
    1MOL      N  239  -0.020   0.991   0.415
    1MOL      O  240   0.652   0.302   0.414
    1MOL      O  241   0.872   0.726   0.416
    1MOL      O  242   1.121   0.323   0.416
    1MOL      H  243  -0.317   0.601   0.407
    1MOL      H  244  -0.499   0.992   0.426
    1MOL      H  245  -0.270   1.095   0.426
    1MOL      H  246  -0.093   0.707   0.406
    1MOL      H  247   1.127   0.799   0.417
    1MOL      H  248   1.217   0.499   0.414
    1MOL      H  249   0.514   0.507   0.415
    1MOL      H  250   1.015   0.107   0.416
    1MOL      H  251   0.247   1.098   0.412
    1MOL      H  252   0.468   0.980   0.412
    1MOL      H  253   0.267   0.593   0.417
    1MOL      H  254   0.041   0.711   0.417
    1MOL      H  255  -0.243   1.173   0.400
    1MOL      H  256  -0.250   1.423   0.401
    1MOL      H  257   0.169   1.439   0.426
    1MOL      H  258   0.181   1.186   0.426
    1MOL      H  259   0.708   0.043   0.412
    1MOL      H  260   0.625   0.784   0.415
    1MOL      C  261  -1.195   2.294   0.411
    1MOL      C  262  -1.317   2.365   0.416
    1MOL      C  263  -1.293   2.503   0.421
    1MOL      C  264  -1.162   2.565   0.421
    1MOL      C  265  -1.038   2.498   0.416
    1MOL      C  266  -1.061   2.358   0.411
    1MOL      N  267   0.333   2.310   0.416
    1MOL      C  268   0.270   2.173   0.415
    1MOL      C  269   0.136   2.116   0.415
    1MOL      C  270  -0.005   2.186   0.415
    1MOL      C  271  -0.141   2.106   0.415
    1MOL      C  272  -0.127   1.950   0.414
    1MOL      C  273   0.007   1.874   0.415
    1MOL      C  274   0.133   1.962   0.415
    1MOL      C  275  -0.277   2.159   0.415
    1MOL      C  276   0.028   1.731   0.415
    1MOL      C  277  -0.764   2.498   0.415
    1MOL      C  278  -0.637   2.565   0.413
    1MOL      C  279  -0.508   2.499   0.413
    1MOL      C  280  -0.487   2.358   0.415
    1MOL      C  281  -0.613   2.288   0.416
    1MOL      C  282  -0.744   2.355   0.416
    1MOL      C  283  -0.905   2.728   0.414
    1MOL      C  284  -1.028   2.808   0.407
    1MOL      C  285  -1.034   2.952   0.407
    1MOL      C  286  -0.925   3.038   0.413
    1MOL      C  287  -0.806   2.964   0.420
    1MOL      C  288  -0.797   2.817   0.421
    1MOL      N  289  -0.062   1.611   0.413
    1MOL      N  290  -0.344   2.298   0.415
    1MOL      N  291  -0.901   2.572   0.415
    1MOL      O  292  -0.229   1.884   0.414
    1MOL      O  293  -0.009   2.307   0.416
    1MOL      O  294   0.240   1.904   0.416
    1MOL      H  295  -1.197   2.182   0.407
    1MOL      H  296  -1.380   2.574   0.426
    1MOL      H  297  -1.151   2.676   0.426
    1MOL      H  298  -0.974   2.288   0.406
    1MOL      H  299   0.247   2.380   0.417
    1MOL      H  300   0.336   2.080   0.414
    1MOL      H  301  -0.366   2.088   0.415
    1MOL      H  302   0.134   1.689   0.416
    1MOL      H  303  -0.634   2.679   0.412
    1MOL      H  304  -0.412   2.561   0.412
    1MOL      H  305  -0.614   2.174   0.417
    1MOL      H  306  -0.840   2.293   0.417
    1MOL      H  307  -1.123   2.755   0.400
    1MOL      H  308  -1.131   3.005   0.401
    1MOL      H  309  -0.711   3.020   0.426
    1MOL      H  310  -0.699   2.767   0.426
    1MOL      H  311  -0.172   1.624   0.412
    1MOL      H  312  -0.256   2.365   0.415
    1MOL      C  313   1.480   0.713   0.411
    1MOL      C  314   1.357   0.784   0.416
    1MOL      C  315   1.381   0.922   0.421
    1MOL      C  316   1.512   0.984   0.421
    1MOL      C  317   1.636   0.917   0.416
    1MOL      C  318   1.613   0.776   0.411
    1MOL      N  319   3.007   0.729   0.416
    1MOL      C  320   2.944   0.592   0.415
    1MOL      C  321   2.810   0.535   0.415
    1MOL      C  322   2.669   0.604   0.415
    1MOL      C  323   2.533   0.525   0.415
    1MOL      C  324   2.548   0.369   0.414
    1MOL      C  325   2.681   0.292   0.415
    1MOL      C  326   2.807   0.381   0.415
    1MOL      C  327   2.397   0.578   0.415
    1MOL      C  328   2.702   0.149   0.415
    1MOL      C  329   1.910   0.917   0.415
    1MOL      C  330   2.037   0.984   0.413
    1MOL      C  331   2.167   0.918   0.413
    1MOL      C  332   2.187   0.776   0.415
    1MOL      C  333   2.062   0.706   0.416
    1MOL      C  334   1.930   0.773   0.416
    1MOL      C  335   1.769   1.146   0.414
    1MOL      C  336   1.647   1.227   0.407
    1MOL      C  337   1.640   1.371   0.407
    1MOL      C  338   1.749   1.456   0.413
    1MOL      C  339   1.868   1.383   0.420
    1MOL      C  340   1.877   1.236   0.421
    1MOL      N  341   2.612   0.029   0.413
    1MOL      N  342   2.330   0.717   0.415
    1MOL      N  343   1.773   0.991   0.415
    1MOL      O  344   2.446   0.302   0.414
    1MOL      O  345   2.665   0.726   0.416
    1MOL      O  346   2.914   0.323   0.416
    1MOL      H  347   1.477   0.601   0.407
    1MOL      H  348   1.294   0.992   0.426
    1MOL      H  349   1.523   1.095   0.426
    1MOL      H  350   1.700   0.707   0.406
    1MOL      H  351   2.921   0.799   0.417
    1MOL      H  352   3.010   0.499   0.414
    1MOL      H  353   2.308   0.507   0.415
    1MOL      H  354   2.808   0.107   0.416
    1MOL      H  355   2.040   1.098   0.412
    1MOL      H  356   2.262   0.980   0.412
    1MOL      H  357   2.060   0.593   0.417
    1MOL      H  358   1.834   0.711   0.417
    1MOL      H  359   1.551   1.173   0.400
    1MOL      H  360   1.543   1.423   0.401
    1MOL      H  361   1.963   1.439   0.426
    1MOL      H  362   1.975   1.186   0.426
    1MOL      H  363   2.502   0.043   0.412
    1MOL      H  364   2.418   0.784   0.415
    1MOL      C  365   0.599   2.294   0.411
    1MOL      C  366   0.476   2.365   0.416
    1MOL      C  367   0.501   2.503   0.421
    1MOL      C  368   0.632   2.565   0.421
    1MOL      C  369   0.756   2.498   0.416
    1MOL      C  370   0.732   2.358   0.411
    1MOL      N  371   2.126   2.310   0.416
    1MOL      C  372   2.064   2.173   0.415
    1MOL      C  373   1.930   2.116   0.415
    1MOL      C  374   1.789   2.186   0.415
    1MOL      C  375   1.652   2.106   0.415
    1MOL      C  376   1.667   1.950   0.414
    1MOL      C  377   1.801   1.874   0.415
    1MOL      C  378   1.926   1.962   0.415
    1MOL      C  379   1.516   2.159   0.415
    1MOL      C  380   1.822   1.731   0.415
    1MOL      C  381   1.029   2.498   0.415
    1MOL      C  382   1.156   2.565   0.413
    1MOL      C  383   1.286   2.499   0.413
    1MOL      C  384   1.307   2.358   0.415
    1MOL      C  385   1.181   2.288   0.416
    1MOL      C  386   1.049   2.355   0.416
    1MOL      C  387   0.888   2.728   0.414
    1MOL      C  388   0.766   2.808   0.407
    1MOL      C  389   0.760   2.952   0.407
    1MOL      C  390   0.868   3.038   0.413
    1MOL      C  391   0.987   2.964   0.420
    1MOL      C  392   0.996   2.817   0.421
    1MOL      N  393   1.731   1.611   0.413
    1MOL      N  394   1.449   2.298   0.415
    1MOL      N  395   0.892   2.572   0.415
    1MOL      O  396   1.565   1.884   0.414
    1MOL      O  397   1.785   2.307   0.416
    1MOL      O  398   2.034   1.904   0.416
    1MOL      H  399   0.596   2.182   0.407
    1MOL      H  400   0.414   2.574   0.426
    1MOL      H  401   0.642   2.676   0.426
    1MOL      H  402   0.820   2.288   0.406
    1MOL      H  403   2.040   2.380   0.417
    1MOL      H  404   2.130   2.080   0.414
    1MOL      H  405   1.427   2.088   0.415
    1MOL      H  406   1.928   1.689   0.416
    1MOL      H  407   1.160   2.679   0.412
    1MOL      H  408   1.381   2.561   0.412
    1MOL      H  409   1.179   2.174   0.417
    1MOL      H  410   0.954   2.293   0.417
    1MOL      H  411   0.670   2.755   0.400
    1MOL      H  412   0.663   3.005   0.401
    1MOL      H  413   1.082   3.020   0.426
    1MOL      H  414   1.094   2.767   0.426
    1MOL      H  415   1.621   1.624   0.412
    1MOL      H  416   1.538   2.365   0.415
   3.58710   3.16266   1.03000   0.00000   0.00000   -1.76104   0.00000   0.00000   0.00000
